; Parameters describing what to do, when to stop and what to save
integrator  = steep          ; Algorithm (steep = steepest descent minimization)
emtol       = 1.0            ; Stop minimization when the maximum force < 1.0 kJ/mol/nm
emstep      = 0.001          ; Minimization step size
nsteps      = 1000           ; Maximum number of (minimization) steps to perform

; Output control (the minimization only needs its final .gro structure)
nstxout                 = 0  ; disable full-precision coordinate trajectory (.trr)
nstvout                 = 0  ; disable velocity trajectory output (.trr)
nstfout                 = 0  ; disable force trajectory output (.trr)
nstxout-compressed      = 0  ; do not write a trajectory during minimization

; Parameters describing how to find the neighbors of each atom and how to calculate the interactions
nstlist         = 10          ; Frequency to update the neighbor list and long range forces
cutoff-scheme   = Verlet     ; Buffered neighbor searching
ns_type         = grid       ; Method to determine neighbor list (simple, grid)
coulombtype     = PME        ; Treatment of long range electrostatic interactions
rcoulomb        = 1.1        ; Short-range electrostatic cut-off
rvdw            = 1.1        ; Short-range Van der Waals cut-off
pbc             = xyz        ; Periodic Boundary Conditions in all 3 dimensions
